# vtk DataFile Version 4.2
vtk output
ASCII
DATASET UNSTRUCTURED_GRID
FIELD FieldData 1
ispatch 1 1 int
0 
METADATA
INFORMATION 0

POINTS 1344 double
1.5 0.30000001192 0 1.4999680519 0.30399984121 0 1.4998719692 0.30799862742 0 
1.4997121096 0.31199538708 0 1.4994882345 0.31598907709 0 1.4992004633 0.31997865438 0 
1.4988489151 0.32396313548 0 1.4984320402 0.32795533538 0 1.4979476929 0.33196762204 0 
1.4973963499 0.33598700166 0 1.4967805147 0.33999237418 0 1.4961055517 0.34395515919 0 
1.4953707457 0.34788706899 0 1.4945732355 0.35180670023 0 1.4937129021 0.35571369529 0 
1.4927847385 0.35962837934 0 1.4917882681 0.36354866624 0 1.4907343388 0.36743119359 0 
1.4896247387 0.37127414346 0 1.4884537458 0.3750988543 0 1.4872157574 0.37892207503 0 
1.4859139919 0.38273191452 0 1.484560132 0.38649576902 0 1.4831463099 0.3902375102 0 
1.4816657305 0.39397343993 0 1.4801274538 0.39767980576 0 1.4785351753 0.4013491869 0 
1.476870656 0.40502229333 0 1.4751443863 0.40867397189 0 1.4733757973 0.41226419806 0 
1.4715368748 0.41585093737 0 1.4696493149 0.41939094663 0 1.4677102566 0.42289122939 0 
1.4657113552 0.42636698484 0 1.4636616707 0.42980256677 0 1.4615544081 0.43320927024 0 
1.4593888521 0.43658801913 0 1.4571660757 0.43993654847 0 1.4548879862 0.44325119257 0 
1.4525698423 0.44651091099 0 1.450191021 0.44974496961 0 1.447769165 0.45292928815 0 
1.4452806711 0.45609438419 0 1.4427571297 0.45920014381 0 1.4401854277 0.46226376295 0 
1.4374980927 0.46536168456 0 1.4347287416 0.4684497118 0 1.4318883419 0.4715128243 0 
1.4290168285 0.47450780869 0 1.4260578156 0.47749263048 0 1.4230800867 0.48039755225 0 
1.4200445414 0.48326170444 0 1.4169954062 0.48604443669 0 1.4139163494 0.48876288533 0 
1.4108753204 0.49136126041 0 1.4077886343 0.49391433597 0 1.4045559168 0.4965005815 0 
1.4013547897 0.49897667766 0 1.3979901075 0.50149172544 0 1.3945645094 0.50396347046 0 
1.391092062 0.50638079643 0 1.3876622915 0.50868421793 0 1.3842195272 0.51091498137 0 
1.380697608 0.51311528683 0 1.3772250414 0.51520639658 0 1.3737616539 0.51721662283 0 
1.3702702522 0.51916909218 0 1.36658144 0.5211532712 0 1.3627812862 0.52311515808 0 
1.3590670824 0.52495414019 0 1.3551945686 0.52679085732 0 1.3513075113 0.52855366468 0 
1.3475033045 0.53020232916 0 1.3435866833 0.53182220459 0 1.3396692276 0.53336548805 0 
1.3358720541 0.5347892642 0 1.3320479393 0.53615278006 0 1.3280166388 0.53751510382 0 
1.3237901926 0.53886187077 0 1.3198838234 0.5400338769 0 1.3158502579 0.54117161036 0 
1.3115787506 0.54229748249 0 1.3072341681 0.54336035252 0 1.3030824661 0.5442995429 0 
1.2991299629 0.54512494802 0 1.295165658 0.54588627815 0 1.2911986113 0.54658198357 0 
1.2870901823 0.54723334312 0 1.2826550007 0.54785811901 0 1.2780220509 0.54842454195 0 
1.2732927799 0.54891252518 0 1.2687010765 0.54929953814 0 1.2643760443 0.54958629608 0 
1.2602781057 0.54978865385 0 1.2562800646 0.54992109537 0 1.2522746325 0.54998964071 0 
1.2482693195 0.54999399185 0 1.2442581654 0.54993402958 0 1.2399439812 0.54979765415 0 
1.2352072001 0.54956197739 0 1.2302948236 0.54922217131 0 1.2254658937 0.54879325628 0 
1.2207398415 0.54828178883 0 1.2161515951 0.54769796133 0 1.2117874622 0.5470623374 0 
1.2077456713 0.54640328884 0 1.2037832737 0.54569089413 0 1.1998127699 0.54491066933 0 
1.1956875324 0.54402899742 0 1.1911104918 0.54296505451 0 1.1866960526 0.54185247421 0 
1.1825032234 0.54071599245 0 1.1780788898 0.53943133354 0 1.1735062599 0.53800988197 0 
1.1692836285 0.53661119938 0 1.1654065847 0.53525298834 0 1.1616448164 0.53386610746 0 
1.1579144001 0.53242254257 0 1.1541286707 0.53088676929 0 1.1503710747 0.52929037809 0 
1.1467080116 0.52766370773 0 1.1429493427 0.52592068911 0 1.1392616034 0.52413612604 0 
1.1356699467 0.52232557535 0 1.131998539 0.52039885521 0 1.128442049 0.51845747232 0 
1.1249611378 0.51648390293 0 1.121509552 0.51445329189 0 1.1180934906 0.51236921549 0 
1.1146851778 0.51021391153 0 1.1113108397 0.50800311565 0 1.1079183817 0.50570076704 0 
1.1045790911 0.50335377455 0 1.1012955904 0.50096517801 0 1.0980449915 0.49851870537 0 
1.0948734283 0.49605038762 0 1.0916975737 0.4934951067 0 1.0886220932 0.4909375906 0 
1.0855827332 0.48832678795 0 1.082555294 0.48564019799 0 1.0795749426 0.48290789127 0 
1.0766209364 0.48011022806 0 1.0736950636 0.47724720836 0 1.070828557 0.47434905171 0 
1.0680221319 0.47141775489 0 1.0652576685 0.46843481064 0 1.0625406504 0.46540555358 0 
1.0598921776 0.46235466003 0 1.0573190451 0.45929229259 0 1.0547938347 0.45618757606 0 
1.0522898436 0.45300549269 0 1.0498657227 0.44982072711 0 1.0474715233 0.44656813145 0 
1.0451385975 0.44328927994 0 1.0428409576 0.43994691968 0 1.040602088 0.43657422066 0 
1.0384311676 0.43318644166 0 1.0363221169 0.42977586389 0 1.03427279 0.42633998394 0 
1.0322743654 0.42286396027 0 1.030335784 0.41936346889 0 1.0284454823 0.41581702232 0 
1.0265978575 0.41221189499 0 1.0248297453 0.40862032771 0 1.0230987072 0.40495613217 0 
1.0214275122 0.40126517415 0 1.0198366642 0.39759522676 0 1.0182962418 0.39387956262 0 
1.0168135166 0.3901334703 0 1.0154012442 0.38639110327 0 1.0140490532 0.38262662292 0 
1.0127481222 0.37881332636 0 1.0115115643 0.37498837709 0 1.0103423595 0.37116312981 0 
1.0092344284 0.3673196435 0 1.0081810951 0.36343196034 0 1.0071831942 0.3594981432 0 
1.0062551498 0.35557356477 0 1.0053970814 0.3516664207 0 1.0046018362 0.34774634242 0 
1.0038692951 0.34381401539 0 1.0031973124 0.33985513449 0 1.0025866032 0.33586975932 0 
1.002040863 0.33187866211 0 1.0015614033 0.32789722085 0 1.0011466742 0.32391688228 0 
1.0007958412 0.31993234158 0 1.0005089045 0.31594267488 0 1.0002857447 0.31194895506 0 
1.0001264811 0.3079521656 0 1.0000312328 0.30395334959 0 1 0.30000001192 0 
1 0 0 1.0000319481 -0.0039998898283 0 1.0001280308 -0.007998756133 0 
1.0002880096 -0.011995574459 0 1.0005118847 -0.015989322215 0 1.0007996559 -0.019978975877 0 
1.0011512041 -0.023963514715 0 1.0015679598 -0.027955787256 0 1.0020523071 -0.031968120486 0 
1.0026037693 -0.035987578332 0 1.0032196045 -0.039992991835 0 1.0038945675 -0.043955847621 0 
1.0046293736 -0.047887802124 0 1.0054268837 -0.051807492971 0 1.0062873363 -0.055714551359 0 
1.0072153807 -0.059629306197 0 1.0082119703 -0.063549645245 0 1.0092658997 -0.067432232201 0 
1.0103756189 -0.071275241673 0 1.011546731 -0.075100004673 0 1.0127847195 -0.078923292458 0 
1.0140863657 -0.082733161747 0 1.0154403448 -0.086497083306 0 1.0168542862 -0.09023886174 0 
1.0183348656 -0.093974851072 0 1.0198731422 -0.097681261599 0 1.0214654207 -0.10135068744 0 
1.0231300592 -0.10502386093 0 1.0248564482 -0.10867553949 0 1.0266250372 -0.11226581782 0 
1.0284640789 -0.11585260183 0 1.0303516388 -0.11939263344 0 1.0322906971 -0.12289297581 0 
1.0342897177 -0.12636876106 0 1.0363394022 -0.12980435789 0 1.0384466648 -0.13321112096 0 
1.04061234 -0.13658986986 0 1.0428352356 -0.1399384737 0 1.0451133251 -0.1432531029 0 
1.0474315882 -0.14651286602 0 1.0498104095 -0.14974695444 0 1.0522323847 -0.15293128788 0 
1.0547209978 -0.15609642863 0 1.0572445393 -0.15920220315 0 1.0598163605 -0.16226582229 0 
1.0624545813 -0.16530796885 0 1.0651597977 -0.16832733154 0 1.0679072142 -0.17129568756 0 
1.0707008839 -0.17421780527 0 1.0735477209 -0.17710056901 0 1.0764611959 -0.17995628715 0 
1.0793969631 -0.18274192512 0 1.0823636055 -0.18546710908 0 1.0853780508 -0.18814779818 0 
1.0884159803 -0.19076322019 0 1.0914888382 -0.19332407415 0 1.0946463346 -0.19587042928 0 
1.0978140831 -0.19834174216 0 1.1010427475 -0.20077779889 0 1.1042951345 -0.20315042138 0 
1.107609272 -0.20548689365 0 1.1109865904 -0.20778657496 0 1.1143467426 -0.20999573171 0 
1.1177549362 -0.21215853095 0 1.1211663485 -0.21424727142 0 1.1246154308 -0.21628387272 0 
1.1280938387 -0.21826331317 0 1.1316491365 -0.22021140158 0 1.1354248524 -0.22219929099 0 
1.1390531063 -0.22403299809 0 1.1427801847 -0.22584043443 0 1.1466559172 -0.22764007747 0 
1.1503937244 -0.22930021584 0 1.1542086601 -0.23091995716 0 1.1580929756 -0.23249323666 0 
1.16190207 -0.23396314681 0 1.1656740904 -0.2353489697 0 1.1695644855 -0.23670685291 0 
1.1738176346 -0.23810973763 0 1.178404212 -0.23952880502 0 1.1827939749 -0.24079732597 0 
1.1869909763 -0.24192945659 0 1.191421628 -0.24304027855 0 1.1959921122 -0.24409660697 0 
1.200086832 -0.24496670067 0 1.2040569782 -0.24574221671 0 1.2080206871 -0.24645027518 0 
1.2120778561 -0.24710708857 0 1.216463089 -0.24774034321 0 1.2210639715 -0.24831977487 0 
1.2257978916 -0.2488257587 0 1.230633378 -0.24924874306 0 1.2355437279 -0.2495816797 0 
1.2402573824 -0.2498100847 0 1.2445380688 -0.24994032085 0 1.2485443354 -0.24999576807 0 
1.2525497675 -0.24998699129 0 1.256554842 -0.2499140501 0 1.2605525255 -0.24977718294 0 
1.2646640539 -0.24956955016 0 1.2690075636 -0.24927636981 0 1.2736133337 -0.2488823235 0 
1.2783402205 -0.24838846922 0 1.2829633951 -0.24781729281 0 1.2873809338 -0.24718953669 0 
1.2914681435 -0.24653679132 0 1.2954341173 -0.24583680928 0 1.2993981838 -0.2450710535 0 
1.3033572435 -0.24423964322 0 1.307524085 -0.24329195917 0 1.3118773699 -0.24222137034 0 
1.3161327839 -0.24109427631 0 1.3201501369 -0.23995614052 0 1.3240782022 -0.2387727201 0 
1.3283121586 -0.23741778731 0 1.332321763 -0.23605746031 0 1.3361375332 -0.2346919775 0 
1.3399424553 -0.23326027393 0 1.3438645601 -0.23170980811 0 1.3477723598 -0.23008818924 0 
1.3515805006 -0.22843247652 0 1.3554742336 -0.22666093707 0 1.3593349457 -0.22482408583 0 
1.3630467653 -0.22298079729 0 1.366853714 -0.22100952268 0 1.3705196381 -0.21903201938 0 
1.3740090132 -0.21707548201 0 1.3774702549 -0.21506120265 0 1.3809229136 -0.21297696233 0 
1.3843898773 -0.21080647409 0 1.3878133297 -0.20858448744 0 1.3912237883 -0.20629064739 0 
1.394649744 -0.20390301943 0 1.3980153799 -0.20147316158 0 1.4013328552 -0.19899339974 0 
1.4045097828 -0.19653688371 0 1.4077358246 -0.19395723939 0 1.4108247757 -0.19140377641 0 
1.4138665199 -0.18880614638 0 1.4169253111 -0.18610729277 0 1.4199519157 -0.18334761262 0 
[...]
POINT_DATA 1344
SCALARS x_cor double
LOOKUP_TABLE default
1.5 1.4999680519 1.4998719692 1.4997121096 1.4994882345 1.4992004633 1.4988489151 1.4984320402 1.4979476929 
1.4973963499 1.4967805147 1.4961055517 1.4953707457 1.4945732355 1.4937129021 1.4927847385 1.4917882681 1.4907343388 
1.4896247387 1.4884537458 1.4872157574 1.4859139919 1.484560132 1.4831463099 1.4816657305 1.4801274538 1.4785351753 
1.476870656 1.4751443863 1.4733757973 1.4715368748 1.4696493149 1.4677102566 1.4657113552 1.4636616707 1.4615544081 
1.4593888521 1.4571660757 1.4548879862 1.4525698423 1.450191021 1.447769165 1.4452806711 1.4427571297 1.4401854277 
1.4374980927 1.4347287416 1.4318883419 1.4290168285 1.4260578156 1.4230800867 1.4200445414 1.4169954062 1.4139163494 
1.4108753204 1.4077886343 1.4045559168 1.4013547897 1.3979901075 1.3945645094 1.391092062 1.3876622915 1.3842195272 
1.380697608 1.3772250414 1.3737616539 1.3702702522 1.36658144 1.3627812862 1.3590670824 1.3551945686 1.3513075113 
1.3475033045 1.3435866833 1.3396692276 1.3358720541 1.3320479393 1.3280166388 1.3237901926 1.3198838234 1.3158502579 
1.3115787506 1.3072341681 1.3030824661 1.2991299629 1.295165658 1.2911986113 1.2870901823 1.2826550007 1.2780220509 
1.2732927799 1.2687010765 1.2643760443 1.2602781057 1.2562800646 1.2522746325 1.2482693195 1.2442581654 1.2399439812 
1.2352072001 1.2302948236 1.2254658937 1.2207398415 1.2161515951 1.2117874622 1.2077456713 1.2037832737 1.1998127699 
1.1956875324 1.1911104918 1.1866960526 1.1825032234 1.1780788898 1.1735062599 1.1692836285 1.1654065847 1.1616448164 
1.1579144001 1.1541286707 1.1503710747 1.1467080116 1.1429493427 1.1392616034 1.1356699467 1.131998539 1.128442049 
1.1249611378 1.121509552 1.1180934906 1.1146851778 1.1113108397 1.1079183817 1.1045790911 1.1012955904 1.0980449915 
1.0948734283 1.0916975737 1.0886220932 1.0855827332 1.082555294 1.0795749426 1.0766209364 1.0736950636 1.070828557 
1.0680221319 1.0652576685 1.0625406504 1.0598921776 1.0573190451 1.0547938347 1.0522898436 1.0498657227 1.0474715233 
1.0451385975 1.0428409576 1.040602088 1.0384311676 1.0363221169 1.03427279 1.0322743654 1.030335784 1.0284454823 
1.0265978575 1.0248297453 1.0230987072 1.0214275122 1.0198366642 1.0182962418 1.0168135166 1.0154012442 1.0140490532 
1.0127481222 1.0115115643 1.0103423595 1.0092344284 1.0081810951 1.0071831942 1.0062551498 1.0053970814 1.0046018362 
1.0038692951 1.0031973124 1.0025866032 1.002040863 1.0015614033 1.0011466742 1.0007958412 1.0005089045 1.0002857447 
1.0001264811 1.0000312328 1 1 1.0000319481 1.0001280308 1.0002880096 1.0005118847 1.0007996559 
1.0011512041 1.0015679598 1.0020523071 1.0026037693 1.0032196045 1.0038945675 1.0046293736 1.0054268837 1.0062873363 
1.0072153807 1.0082119703 1.0092658997 1.0103756189 1.011546731 1.0127847195 1.0140863657 1.0154403448 1.0168542862 
1.0183348656 1.0198731422 1.0214654207 1.0231300592 1.0248564482 1.0266250372 1.0284640789 1.0303516388 1.0322906971 
1.0342897177 1.0363394022 1.0384466648 1.04061234 1.0428352356 1.0451133251 1.0474315882 1.0498104095 1.0522323847 
1.0547209978 1.0572445393 1.0598163605 1.0624545813 1.0651597977 1.0679072142 1.0707008839 1.0735477209 1.0764611959 
1.0793969631 1.0823636055 1.0853780508 1.0884159803 1.0914888382 1.0946463346 1.0978140831 1.1010427475 1.1042951345 
1.107609272 1.1109865904 1.1143467426 1.1177549362 1.1211663485 1.1246154308 1.1280938387 1.1316491365 1.1354248524 
1.1390531063 1.1427801847 1.1466559172 1.1503937244 1.1542086601 1.1580929756 1.16190207 1.1656740904 1.1695644855 
1.1738176346 1.178404212 1.1827939749 1.1869909763 1.191421628 1.1959921122 1.200086832 1.2040569782 1.2080206871 
1.2120778561 1.216463089 1.2210639715 1.2257978916 1.230633378 1.2355437279 1.2402573824 1.2445380688 1.2485443354 
1.2525497675 1.256554842 1.2605525255 1.2646640539 1.2690075636 1.2736133337 1.2783402205 1.2829633951 1.2873809338 
1.2914681435 1.2954341173 1.2993981838 1.3033572435 1.307524085 1.3118773699 1.3161327839 1.3201501369 1.3240782022 
1.3283121586 1.332321763 1.3361375332 1.3399424553 1.3438645601 1.3477723598 1.3515805006 1.3554742336 1.3593349457 
1.3630467653 1.366853714 1.3705196381 1.3740090132 1.3774702549 1.3809229136 1.3843898773 1.3878133297 1.3912237883 
1.394649744 1.3980153799 1.4013328552 1.4045097828 1.4077358246 1.4108247757 1.4138665199 1.4169253111 1.4199519157 
1.4229537249 1.4259140491 1.4288378954 1.4316871166 1.4345041513 1.4372543097 1.4399371147 1.4425135851 1.445040822 
1.4475605488 1.4499907494 1.4524089098 1.454775691 1.4570922852 1.4593478441 1.4615268707 1.4636638165 1.4657257795 
1.4677243233 1.4696630239 1.4715533257 1.4734009504 1.4751691818 1.4769003391 1.4785715342 1.4801625013 1.4817029238 
1.4831857681 1.4845980406 1.4859503508 1.4872512817 1.4884879589 1.4896571636 1.4907650948 1.4918185472 1.492816329 
1.4937446117 1.494602561 1.4953979254 1.4961304665 1.4968024492 1.4974131584 1.4979590178 1.4984384775 1.4988532066 
1.4992040396 1.4994910955 1.4997142553 1.4998735189 1.4999687672 1.5 1.5040163994 1.5081037283 1.5123194456 
1.5165827274 1.5208460093 1.5251092911 1.5293725729 1.5336358547 1.5378991365 1.5421624184 1.5464257002 1.550688982 
1.5549522638 1.5592155457 1.5634787083 1.5677419901 1.5720052719 1.5762685537 1.5805318356 1.5847951174 1.5890583992 
1.593321681 1.5975849628 1.6018482447 1.6061115265 1.6103748083 1.6146380901 1.618901372 1.6231646538 1.6274279356 
1.6316912174 1.6359544992 1.6402177811 1.6444810629 1.6487443447 1.6530076265 1.6572709084 1.6615341902 1.665797472 
1.6700607538 1.6743240356 1.6785873175 1.6828505993 1.6871138811 1.6913771629 1.6956404448 1.6999037266 1.7041670084 
1.7084302902 1.712693572 1.7169568539 1.7212201357 1.7254834175 1.7297466993 1.7340099812 1.738273263 1.7425365448 
1.7467998266 1.7510631084 1.7553263903 1.7595896721 1.7638529539 1.7681162357 1.7723795176 1.7766427994 1.7809060812 
1.785169363 1.7894326448 1.7936959267 1.7979592085 1.8022224903 1.8064857721 1.810749054 1.8150123358 1.8192756176 
1.8235388994 1.8278021812 1.8320654631 1.8363286257 1.8405913115 1.8448520899 1.8491102457 1.8533660173 1.8576192856 
1.8618701696 1.8661184311 1.8703643084 1.8746076822 1.8788485527 1.883087039 1.8873230219 1.8915566206 1.8957878351 
1.900016427 1.904242754 1.9084665775 1.9126880169 1.9169069529 1.9211236238 1.9253377914 1.9295495749 1.9337589741 
1.9379658699 1.9421705008 1.9463727474 1.9505726099 1.9547700882 1.9589651823 1.9631580114 1.9673484564 1.9715365171 
1.9757221937 1.9799056053 1.9840866327 1.9882653952 1.9924417734 1.9966158867 2.000787735 2.0049571991 2.0091245174 
2.0132894516 2.0174520016 2.0216124058 2.0257706642 2.0299265385 2.0340800285 2.0382316113 2.0423805714 2.0465276241 
2.0506722927 2.0548148155 2.0589549541 2.0630931854 2.0672290325 2.0713627338 2.0754942894 2.0796236992 2.0837509632 
2.087875843 2.0919988155 2.0961196423 2.1002383232 2.1043548584 2.1084692478 2.1125817299 2.1166920662 2.1208002567 
2.1249063015 2.1290104389 2.1331124306 2.1372122765 2.1413104534 2.1454062462 2.14950037 2.1535921097 2.1576821804 
2.1617701054 2.165856123 2.1699402332 2.1740224361 2.1781027317 2.1821811199 2.1862573624 2.1903319359 2.1944046021 
2.1984753609 2.2025444508 2.2066113949 2.2106766701 2.2147402763 2.2188019753 2.2228617668 2.2269198895 2.2309763432 
2.2350311279 2.2390840054 2.2431352139 2.2471847534 2.2512326241 2.2552788258 2.259323597 2.2633664608 2.2674078941 
2.2714476585 2.2754859924 2.2795226574 2.2835576534 2.2875914574 2.2916235924 2.2956542969 2.2996835709 2.3037111759 
2.3077375889 2.3117625713 2.3157863617 2.3198087215 2.3238296509 2.3278493881 2.3318676949 2.3358848095 2.339900732 
2.3439154625 2.3479290009 2.3519413471 2.3559525013 2.3599627018 2.3639717102 2.3679797649 2.3719866276 2.3759925365 
2.3799977303 2.3840017319 2.3880047798 2.3920071125 2.3960082531 2.4000089169 2.4040088654 2.408008337 2.4120080471 
2.4160075188 2.4200072289 2.4240069389 2.4280064106 2.4320061207 2.4360055923 2.4400053024 2.4440050125 2.4480044842 
2.4520041943 2.4560036659 2.460003376 2.4640030861 2.4680025578 2.4720022678 2.4760019779 2.4800014496 2.4840011597 
2.4880006313 2.4920003414 2.4960000515 0.99598360062 0.99189633131 0.98768061399 0.98341733217 0.97915405035 0.97489076853 
0.97062748671 0.96636420488 0.96210092306 0.95783764124 0.95357435942 0.94931107759 0.94504779577 0.94078451395 0.93652123213 
0.93225795031 0.92799466848 0.92373138666 0.91946810484 0.91520482302 0.91094154119 0.90667825937 0.90241497755 0.89815175533 
0.89388847351 0.88962519169 0.88536190987 0.88109862804 0.87683534622 0.8725720644 0.86830878258 0.86404550076 0.85978221893 
0.85551893711 0.85125565529 0.84699237347 0.84272909164 0.83846580982 0.834202528 0.82993924618 0.82567596436 0.82141268253 
0.81714940071 0.81288611889 0.80862283707 0.80435955524 0.80009627342 0.7958329916 0.79156970978 0.78730642796 0.78304320574 
0.77877992392 0.77451664209 0.77025336027 0.76599007845 0.76172679663 0.7574635148 0.75320023298 0.74893695116 0.74467366934 
0.74041038752 0.73614710569 0.73188382387 0.72762054205 0.72335726023 0.7190939784 0.71483069658 0.71056741476 0.70630413294 
0.70204085112 0.69777756929 0.69351428747 0.68925100565 0.68498772383 0.68072444201 0.67646116018 0.67219787836 0.66793465614 
0.66367137432 0.65940874815 0.65514802933 0.6508897543 0.64663404226 0.64238077402 0.63812994957 0.63388162851 0.62963581085 
0.62539243698 0.6211515069 0.61691302061 0.61267697811 0.60844343901 0.60421228409 0.59998363256 0.59575736523 0.59153348207 
0.58731210232 0.58309310675 0.57887649536 0.57466232777 0.57045054436 0.56624114513 0.5620341897 0.55782955885 0.55362731218 
0.54942750931 0.54522997141 0.5410348773 0.53684210777 0.53265172243 0.52846360207 0.52427792549 0.52009451389 0.51591342688 
0.51173472404 0.50755828619 0.50338417292 0.49921235442 0.49504283071 0.49087560177 0.48671066761 0.48254799843 0.47838759422 
0.4742294848 0.47007361054 0.46591997147 0.46176859736 0.45761945844 0.45347252488 0.4493278265 0.44518533349 0.44104504585 
0.43690696359 0.43277108669 0.42863735557 0.42450582981 0.42037644982 0.41624924541 0.41212418675 0.40800124407 0.40388044715 
0.3997617662 0.39564523101 0.39153075218 0.38741838932 0.38330814242 0.37919992208 0.37509378791 0.37098971009 0.36688768864 
0.36278769374 0.3586897254 0.35459378362 0.35049983859 0.34640789032 0.342317909 0.33822992444 0.33414387703 0.33005979657 
0.32597762346 0.3218973875 0.3178190887 0.31374266744 0.30966815352 0.30559548736 0.30152469873 0.29745575786 0.29338863492 
0.28932335973 0.28525987267 0.28119817376 0.27713826299 0.27308011055 0.26902371645 0.26496905088 0.26091611385 0.25686487556 
0.25281530619 0.24876742065 0.24472118914 0.24067658186 0.2366335988 0.23259221017 0.22855241597 0.22451418638 0.22047750652 
0.21644234657 0.21240869164 0.20837654173 0.20434585214 0.20031660795 0.19628879428 0.19226239622 0.18823738396 0.18421374261 
0.18019144237 0.17617046833 0.17215077579 0.16813237965 0.16411523521 0.16009931266 0.15608461201 0.15207107365 0.14805871248 
0.1440474689 0.14003734291 0.13602828979 0.13202030957 0.12801334262 0.1240073815 0.12000240386 0.11599837244 0.11199525744 
0.10799303651 0.1039916724 0.09999114275 0.095991276205 0.091991655529 0.087992042303 0.083992421627 0.079992800951 0.075993187726 
0.07199356705 0.067993946373 0.063994333148 0.059994712472 0.055995095521 0.051995474845 0.047995857894 0.043996240944 0.039996620268 
0.035997003317 0.031997382641 0.02799776569 0.023998146877 0.019998529926 0.015998911113 0.01199929323 0.0079996744171 0.004000056535 
0.99600213766 0.99200230837 0.98800241947 0.98400253057 0.98000264168 0.97600281239 0.97200292349 0.96800303459 0.96400314569 
0.9600033164 0.95600342751 0.95200353861 0.94800364971 0.94400376081 0.94000393152 0.93600404263 0.93200415373 0.92800426483 
0.92400443554 0.92000454664 0.91600465775 0.91200476885 0.90800493956 0.90400499105 0.90000492334 0.89600414038 0.89200252295 
0.88800001144 0.88399666548 0.87999236584 0.87598711252 0.87198090553 0.86797368526 0.86396545172 0.85995614529 0.85594570637 
0.85193425417 0.84792160988 0.8439078331 0.83989286423 0.83587664366 0.8318592906 0.82784062624 0.82382065058 0.81979942322 
0.81577688456 0.81175297499 0.80772769451 0.80370098352 0.79967296124 0.79564344883 0.79161250591 0.78758007288 0.78354614973 
0.77951073647 0.77547377348 0.77143526077 0.76739519835 0.7633535862 0.75931030512 0.75526547432 0.75121897459 0.74717080593 
0.74312096834 0.73906946182 0.73501622677 0.73096132278 0.72690463066 0.72284626961 0.71878606081 0.71472412348 0.7106603384 
0.70659482479 0.70252740383 0.69845819473 0.69438713789 0.6903142333 0.68623942137 0.68216276169 0.67808413506 0.67400366068 
0.66992121935 0.66583687067 0.66175055504 0.65766227245 0.65357202291 0.64947980642 0.64538556337 0.64128935337 0.63719111681 
0.63309085369 0.62898856401 0.62488418818 0.62077778578 0.61666929722 0.6125587821 0.60844612122 0.60433137417 0.60021454096 
0.59609562159 0.59197455645 0.58785134554 0.58372598886 0.57959848642 0.57546883821 0.57133698463 0.56720304489 0.56306684017 
0.55892848969 0.55478793383 0.5506451726 0.54650014639 0.54235297441 0.53820353746 0.53405189514 0.52989798784 0.52574181557 
0.52158337831 0.51742273569 0.51325976849 0.5090945363 0.50492703915 0.50075721741 0.49658513069 0.49241071939 0.48823401332 
0.48405498266 0.47987362742 0.47568994761 0.4715039134 0.46731558442 0.46312487125 0.4589318037 0.45473641157 0.45053863525 
0.44633847475 0.44213595986 0.43793106079 0.43372377753 0.42951411009 0.42530202866 0.42108756304 0.41687068343 0.41265138984 
0.40842968225 0.40420556068 0.39997899532 0.39574998617 0.39151856303 0.3872846961 0.38304838538 0.37880963087 0.37456840277 
0.37032473087 0.36607858539 0.36182996631 0.35757887363 0.35332530737 0.34906923771 0.34481072426 0.34054973722 0.33628675342 
0.33202317357 0.32775962353 0.32349607348 0.31923252344 0.3149689734 0.31070539355 0.30644184351 0.30217829347 0.29791474342 
0.29365119338 0.28938761353 0.28512406349 0.28086051345 0.27659696341 0.27233341336 0.26806986332 0.26380628347 0.25954273343 
0.25527918339 0.25101563334 0.2467520684 0.24248851836 0.23822495341 0.23396140337 0.22969785333 0.22543428838 0.22117073834 
0.2169071734 0.21264362335 0.20838007331 0.20411650836 0.19985295832 0.19558940828 0.19132584333 0.18706229329 0.18279872835 
0.1785351783 0.17427162826 0.17000806332 0.16574451327 0.16148094833 0.15721739829 0.15295384824 0.1486902833 0.14442673326 
0.14016318321 0.13589961827 0.13163606822 0.12737250328 0.12310895324 0.11884539574 0.1145818457 0.11031828821 0.10605473071 
0.10179117322 0.097527623177 0.093264065683 0.089000508189 0.084736950696 0.080473393202 0.076209843159 0.071946285665 0.067682728171 
0.063419170678 0.059155616909 0.054892063141 0.050628505647 0.046364951879 0.042101394385 0.037837840617 0.033574283123 0.029310727492 
0.025047171861 0.02078361623 0.016520060599 0.01226867456 0.0081127528101 0.0040308600292 1.5039978027 1.5079977512 1.5119975805 
1.5159974098 1.5199973583 1.5239971876 1.5279971361 1.5319969654 1.5359967947 1.5399967432 1.5439965725 1.547996521 
1.5519963503 1.5559961796 1.5599961281 1.5639959574 1.5679959059 1.5719957352 1.5759955645 1.579995513 1.5839953423 
1.5879952908 1.59199512 1.5959950686 1.5999951363 1.6039959192 1.6079975367 1.6119999886 1.6160033941 1.6200076342 
1.6240129471 1.6280190945 1.6320263147 1.6360346079 1.6400439739 1.6440542936 1.6480658054 1.6520783901 1.6560922861 
1.660107255 1.6641234159 1.668140769 1.6721594334 1.676179409 1.6802005768 1.684223175 1.6882470846 1.6922724247 
1.6962990761 1.700327158 1.7043566704 1.7083876133 1.7124199867 1.7164539099 1.7204893827 1.7245262861 1.7285647392 
1.7326048613 1.736646533 1.7406897545 1.7447346449 1.748781085 1.7528293133 1.7568790913 1.7609306574 1.7649837732 
1.7690387964 1.7730953693 1.7771538496 1.7812139988 1.7852759361 1.7893397808 1.7934052944 1.7974727154 1.8015419245 
1.8056129217 1.8096858263 1.8137606382 1.8178373575 1.8219159842 1.8259963989 1.8300788403 1.8341631889 1.8382495642 
1.8423378468 1.8464280367 1.8505202532 1.8546144962 1.8587107658 1.8628089428 1.8669092655 1.8710114956 1.8751158714 
1.8792222738 1.883330822 1.8874412775 1.891553998 1.895668745 1.8997855186 1.903904438 1.9080256224 1.9121487141 
1.9162740707 1.9204015732 1.9245312214 1.9286631346 1.9327970743 1.936933279 1.9410716295 1.9452121258 1.949354887 
1.9534999132 1.9576470852 1.9617965221 1.9659482241 1.970102191 1.9742583036 1.9784166813 1.9825774431 1.9867403507 
1.9909055233 1.9950730801 1.9992429018 2.0034148693 2.0075893402 2.0117661953 2.0159451962 2.0201265812 2.024310112 
2.0284962654 2.0326845646 2.036875248 2.0410683155 2.0452637672 2.0494613647 2.0536615849 2.0578641891 2.0620689392 
2.0662763119 2.0704860687 2.0746979713 2.0789124966 2.083129406 2.0873486996 2.0915703773 2.0957944393 2.1000211239 
2.1042501926 2.1084814072 2.1127154827 2.116951704 2.1211905479 2.125431776 2.1296753883 2.1339216232 2.1381700039 
2.1424212456 2.1466748714 2.1509308815 2.1551892757 2.1594502926 2.1637132168 2.1679768562 2.1722404957 2.1765038967 
2.1807675362 2.1850311756 2.1892945766 2.1935582161 2.1978218555 2.2020852566 2.206348896 2.2106125355 2.2148759365 
2.219139576 2.2234032154 2.2276666164 2.2319302559 2.2361936569 2.2404572964 2.2447209358 2.2489843369 2.2532479763 
2.2575116158 2.2617750168 2.2660386562 2.2703022957 2.2745656967 2.2788293362 2.2830929756 2.2873563766 2.2916200161 
2.2958834171 2.3001470566 2.304410696 2.3086740971 2.3129377365 2.317201376 2.321464777 2.3257284164 2.3299920559 
2.3342554569 2.3385190964 2.3427827358 2.3470461369 2.3513097763 2.3555734158 2.3598368168 2.3641004562 2.3683638573 
2.3726274967 2.3768911362 2.3811545372 2.3854181767 2.3896818161 2.3939452171 2.3982088566 2.402472496 2.4067358971 
2.4109995365 2.415263176 2.419526577 2.4237902164 2.4280536175 2.4323172569 2.4365808964 2.4408442974 2.4451079369 
2.4493715763 2.4536349773 2.4578986168 2.4621622562 2.4664256573 2.4706892967 2.4749529362 2.4792163372 2.4834799767 
2.4877312183 2.491887331 2.4959690571 
METADATA
INFORMATION 0

