# vtk DataFile Version 4.2
vtk output
ASCII
DATASET UNSTRUCTURED_GRID
FIELD FieldData 1
ispatch 1 1 int
0 
METADATA
INFORMATION 0

POINTS 76 double
0 0.0080016162246 0 0 0.0040016379207 0 0 0.012001593597 0 
0 0.01600157097 0 0 0.020001549274 0 0 0.024001527578 0 
0 0.028001505882 0 0 0.032001484185 0 0 0.036001462489 0 
0 0.040001437068 0 0 0.044001415372 0 0 0.048001393676 0 
0 0.05200137198 0 0 0.056001350284 0 0 0.060001328588 0 
0 0.064001306891 0 0 0.068001285195 0 0 0.072001263499 0 
0 0.076001241803 0 0 0.080001220107 0 0 0.084001198411 0 
0 0.088001176715 0 0 0.092001147568 0 0 0.096001125872 0 
0 0.10000110418 0 0 0.10400108248 0 0 0.10800106078 0 
0 0.11200103909 0 0 0.11600101739 0 0 0.1200009957 0 
0 0.124000974 0 0 0.12800094485 0 0 0.13200092316 0 
0 0.13600090146 0 0 0.14000087976 0 0 0.14400085807 0 
0 0.14800083637 0 0 0.15200081468 0 0 0.15600079298 0 
0 0.16000077128 0 0 0.16400074959 0 0 0.16800072789 0 
0 0.1720007062 0 0 0.1760006845 0 0 0.1800006628 0 
0 0.18400064111 0 0 0.18800061941 0 0 0.19200059772 0 
0 0.19600057602 0 0 0.20000055432 0 0 0.20400053263 0 
0 0.20800051093 0 0 0.21200048923 0 0 0.21600046754 0 
0 0.22000044584 0 0 0.22400042415 0 0 0.22800040245 0 
0 0.23200038075 0 0 0.23600035906 0 0 0.24000033736 0 
0 0.24400031567 0 0 0.24800029397 0 0 0.25200027227 0 
0 0.25600025058 0 0 0.26000022888 0 0 0.26400020719 0 
0 0.26800018549 0 0 0.27200016379 0 0 0.2760001421 0 
0 0.2800001204 0 0 0.28400009871 0 0 0.28800007701 0 
0 0.29200005531 0 0 0.29600003362 0 0 0.30000001192 0 
0 0 0 
METADATA
INFORMATION 1
NAME L2_NORM_RANGE LOCATION vtkDataArray
DATA 2 0 0.3 

CELLS 75 225
2 0 1 
2 2 0 
2 3 2 
2 4 3 
2 5 4 
2 6 5 
2 7 6 
2 8 7 
2 9 8 
2 10 9 
2 11 10 
2 12 11 
2 13 12 
2 14 13 
2 15 14 
2 16 15 
2 17 16 
2 18 17 
2 19 18 
2 20 19 
2 21 20 
2 22 21 
2 23 22 
2 24 23 
2 25 24 
2 26 25 
2 27 26 
2 28 27 
2 29 28 
2 30 29 
2 31 30 
2 32 31 
2 33 32 
2 34 33 
2 35 34 
2 36 35 
2 37 36 
2 38 37 
2 39 38 
2 40 39 
2 41 40 
2 42 41 
2 43 42 
2 44 43 
2 45 44 
2 46 45 
2 47 46 
2 48 47 
2 49 48 
2 50 49 
2 51 50 
2 52 51 
2 53 52 
2 54 53 
2 55 54 
2 56 55 
2 57 56 
2 58 57 
2 59 58 
2 60 59 
2 61 60 
2 62 61 
2 63 62 
2 64 63 
2 65 64 
2 66 65 
2 67 66 
2 68 67 
2 69 68 
2 70 69 
2 71 70 
2 72 71 
2 73 72 
2 74 73 
2 1 75 

CELL_TYPES 75
3
3
3
3
3
3
3
3
3
3
3
3
3
3
3
3
3
3
3
3
3
3
3
3
3
3
3
3
3
3
3
3
3
3
3
3
3
3
3
3
3
3
3
3
3
3
3
3
3
3
3
3
3
3
3
3
3
3
3
3
3
3
3
3
3
3
3
3
3
3
3
3
3
3
3

POINT_DATA 76
SCALARS x_cor double
LOOKUP_TABLE default
0 0 0 0 0 0 0 0 0 
0 0 0 0 0 0 0 0 0 
0 0 0 0 0 0 0 0 0 
0 0 0 0 0 0 0 0 0 
0 0 0 0 0 0 0 0 0 
0 0 0 0 0 0 0 0 0 
0 0 0 0 0 0 0 0 0 
0 0 0 0 0 0 0 0 0 
0 0 0 0 
METADATA
INFORMATION 0

